# vtk DataFile Version 3.0
vtk output
ASCII
DATASET POLYDATA 
POINTS 441 float
1.0160000000 0.0000000000 0.0000000000
1.0034913540 0.0000000000 0.1589374165
0.9662734206 0.0000000000 0.3139612663
0.9052626286 0.0000000000 0.4612543477
0.8219612663 0.0000000000 0.5971898163
0.7184204897 0.0000000000 0.7184204897
0.5971898163 0.0000000000 0.8219612663
0.4612543477 0.0000000000 0.9052626286
0.3139612663 0.0000000000 0.9662734206
0.1589374165 0.0000000000 1.0034913540
0.0000000000 0.0000000000 1.0160000000
-0.1589374165 0.0000000000 1.0034913540
-0.3139612663 0.0000000000 0.9662734206
-0.4612543477 0.0000000000 0.9052626286
-0.5971898163 0.0000000000 0.8219612663
-0.7184204897 0.0000000000 0.7184204897
-0.8219612663 0.0000000000 0.5971898163
-0.9052626286 0.0000000000 0.4612543477
-0.9662734206 0.0000000000 0.3139612663
-1.0034913540 0.0000000000 0.1589374165
-1.0160000000 0.0000000000 0.0000000000
1.0160000000 0.1524000000 0.0000000000
1.0034913540 0.1524000000 0.1589374165
0.9662734206 0.1524000000 0.3139612663
0.9052626286 0.1524000000 0.4612543477
0.8219612663 0.1524000000 0.5971898163
0.7184204897 0.1524000000 0.7184204897
0.5971898163 0.1524000000 0.8219612663
0.4612543477 0.1524000000 0.9052626286
0.3139612663 0.1524000000 0.9662734206
0.1589374165 0.1524000000 1.0034913540
0.0000000000 0.1524000000 1.0160000000
-0.1589374165 0.1524000000 1.0034913540
-0.3139612663 0.1524000000 0.9662734206
-0.4612543477 0.1524000000 0.9052626286
-0.5971898163 0.1524000000 0.8219612663
-0.7184204897 0.1524000000 0.7184204897
-0.8219612663 0.1524000000 0.5971898163
-0.9052626286 0.1524000000 0.4612543477
-0.9662734206 0.1524000000 0.3139612663
-1.0034913540 0.1524000000 0.1589374165
-1.0160000000 0.1524000000 0.0000000000
1.0160000000 0.3048000000 0.0000000000
1.0034913540 0.3048000000 0.1589374165
0.9662734206 0.3048000000 0.3139612663
0.9052626286 0.3048000000 0.4612543477
0.8219612663 0.3048000000 0.5971898163
0.7184204897 0.3048000000 0.7184204897
0.5971898163 0.3048000000 0.8219612663
0.4612543477 0.3048000000 0.9052626286
0.3139612663 0.3048000000 0.9662734206
0.1589374165 0.3048000000 1.0034913540
0.0000000000 0.3048000000 1.0160000000
-0.1589374165 0.3048000000 1.0034913540
-0.3139612663 0.3048000000 0.9662734206
-0.4612543477 0.3048000000 0.9052626286
-0.5971898163 0.3048000000 0.8219612663
-0.7184204897 0.3048000000 0.7184204897
-0.8219612663 0.3048000000 0.5971898163
-0.9052626286 0.3048000000 0.4612543477
-0.9662734206 0.3048000000 0.3139612663
-1.0034913540 0.3048000000 0.1589374165
-1.0160000000 0.3048000000 0.0000000000
1.0160000000 0.4572000000 0.0000000000
1.0034913540 0.4572000000 0.1589374165
0.9662734206 0.4572000000 0.3139612663
0.9052626286 0.4572000000 0.4612543477
0.8219612663 0.4572000000 0.5971898163
0.7184204897 0.4572000000 0.7184204897
0.5971898163 0.4572000000 0.8219612663
0.4612543477 0.4572000000 0.9052626286
0.3139612663 0.4572000000 0.9662734206
0.1589374165 0.4572000000 1.0034913540
0.0000000000 0.4572000000 1.0160000000
-0.1589374165 0.4572000000 1.0034913540
-0.3139612663 0.4572000000 0.9662734206
-0.4612543477 0.4572000000 0.9052626286
-0.5971898163 0.4572000000 0.8219612663
-0.7184204897 0.4572000000 0.7184204897
-0.8219612663 0.4572000000 0.5971898163
-0.9052626286 0.4572000000 0.4612543477
-0.9662734206 0.4572000000 0.3139612663
-1.0034913540 0.4572000000 0.1589374165
-1.0160000000 0.4572000000 0.0000000000
1.0160000000 0.6096000000 0.0000000000
1.0034913540 0.6096000000 0.1589374165
0.9662734206 0.6096000000 0.3139612663
0.9052626286 0.6096000000 0.4612543477
0.8219612663 0.6096000000 0.5971898163
0.7184204897 0.6096000000 0.7184204897
0.5971898163 0.6096000000 0.8219612663
0.4612543477 0.6096000000 0.9052626286
0.3139612663 0.6096000000 0.9662734206
0.1589374165 0.6096000000 1.0034913540
0.0000000000 0.6096000000 1.0160000000
-0.1589374165 0.6096000000 1.0034913540
-0.3139612663 0.6096000000 0.9662734206
-0.4612543477 0.6096000000 0.9052626286
-0.5971898163 0.6096000000 0.8219612663
-0.7184204897 0.6096000000 0.7184204897
-0.8219612663 0.6096000000 0.5971898163
-0.9052626286 0.6096000000 0.4612543477
-0.9662734206 0.6096000000 0.3139612663
-1.0034913540 0.6096000000 0.1589374165
-1.0160000000 0.6096000000 0.0000000000
1.0160000000 0.7620000000 0.0000000000
1.0034913540 0.7620000000 0.1589374165
0.9662734206 0.7620000000 0.3139612663
0.9052626286 0.7620000000 0.4612543477
0.8219612663 0.7620000000 0.5971898163
0.7184204897 0.7620000000 0.7184204897
0.5971898163 0.7620000000 0.8219612663
0.4612543477 0.7620000000 0.9052626286
0.3139612663 0.7620000000 0.9662734206
0.1589374165 0.7620000000 1.0034913540
0.0000000000 0.7620000000 1.0160000000
-0.1589374165 0.7620000000 1.0034913540
-0.3139612663 0.7620000000 0.9662734206
-0.4612543477 0.7620000000 0.9052626286
-0.5971898163 0.7620000000 0.8219612663
-0.7184204897 0.7620000000 0.7184204897
-0.8219612663 0.7620000000 0.5971898163
-0.9052626286 0.7620000000 0.4612543477
-0.9662734206 0.7620000000 0.3139612663
-1.0034913540 0.7620000000 0.1589374165
-1.0160000000 0.7620000000 0.0000000000
1.0160000000 0.9144000000 0.0000000000
1.0034913540 0.9144000000 0.1589374165
0.9662734206 0.9144000000 0.3139612663
0.9052626286 0.9144000000 0.4612543477
0.8219612663 0.9144000000 0.5971898163
0.7184204897 0.9144000000 0.7184204897
0.5971898163 0.9144000000 0.8219612663
0.4612543477 0.9144000000 0.9052626286
0.3139612663 0.9144000000 0.9662734206
0.1589374165 0.9144000000 1.0034913540
0.0000000000 0.9144000000 1.0160000000
-0.1589374165 0.9144000000 1.0034913540
-0.3139612663 0.9144000000 0.9662734206
-0.4612543477 0.9144000000 0.9052626286
-0.5971898163 0.9144000000 0.8219612663
-0.7184204897 0.9144000000 0.7184204897
-0.8219612663 0.9144000000 0.5971898163
-0.9052626286 0.9144000000 0.4612543477
-0.9662734206 0.9144000000 0.3139612663
-1.0034913540 0.9144000000 0.1589374165
-1.0160000000 0.9144000000 0.0000000000
1.0160000000 1.0668000000 0.0000000000
1.0034913540 1.0668000000 0.1589374165
0.9662734206 1.0668000000 0.3139612663
0.9052626286 1.0668000000 0.4612543477
0.8219612663 1.0668000000 0.5971898163
0.7184204897 1.0668000000 0.7184204897
0.5971898163 1.0668000000 0.8219612663
0.4612543477 1.0668000000 0.9052626286
0.3139612663 1.0668000000 0.9662734206
0.1589374165 1.0668000000 1.0034913540
0.0000000000 1.0668000000 1.0160000000
-0.1589374165 1.0668000000 1.0034913540
-0.3139612663 1.0668000000 0.9662734206
-0.4612543477 1.0668000000 0.9052626286
-0.5971898163 1.0668000000 0.8219612663
-0.7184204897 1.0668000000 0.7184204897
-0.8219612663 1.0668000000 0.5971898163
-0.9052626286 1.0668000000 0.4612543477
-0.9662734206 1.0668000000 0.3139612663
-1.0034913540 1.0668000000 0.1589374165
-1.0160000000 1.0668000000 0.0000000000
1.0160000000 1.2192000000 0.0000000000
1.0034913540 1.2192000000 0.1589374165
0.9662734206 1.2192000000 0.3139612663
0.9052626286 1.2192000000 0.4612543477
0.8219612663 1.2192000000 0.5971898163
0.7184204897 1.2192000000 0.7184204897
0.5971898163 1.2192000000 0.8219612663
0.4612543477 1.2192000000 0.9052626286
0.3139612663 1.2192000000 0.9662734206
0.1589374165 1.2192000000 1.0034913540
0.0000000000 1.2192000000 1.0160000000
-0.1589374165 1.2192000000 1.0034913540
-0.3139612663 1.2192000000 0.9662734206
-0.4612543477 1.2192000000 0.9052626286
-0.5971898163 1.2192000000 0.8219612663
-0.7184204897 1.2192000000 0.7184204897
-0.8219612663 1.2192000000 0.5971898163
-0.9052626286 1.2192000000 0.4612543477
-0.9662734206 1.2192000000 0.3139612663
-1.0034913540 1.2192000000 0.1589374165
-1.0160000000 1.2192000000 0.0000000000
1.0160000000 1.3716000000 0.0000000000
1.0034913540 1.3716000000 0.1589374165
0.9662734206 1.3716000000 0.3139612663
0.9052626286 1.3716000000 0.4612543477
0.8219612663 1.3716000000 0.5971898163
0.7184204897 1.3716000000 0.7184204897
0.5971898163 1.3716000000 0.8219612663
0.4612543477 1.3716000000 0.9052626286
0.3139612663 1.3716000000 0.9662734206
0.1589374165 1.3716000000 1.0034913540
0.0000000000 1.3716000000 1.0160000000
-0.1589374165 1.3716000000 1.0034913540
-0.3139612663 1.3716000000 0.9662734206
-0.4612543477 1.3716000000 0.9052626286
-0.5971898163 1.3716000000 0.8219612663
-0.7184204897 1.3716000000 0.7184204897
-0.8219612663 1.3716000000 0.5971898163
-0.9052626286 1.3716000000 0.4612543477
-0.9662734206 1.3716000000 0.3139612663
-1.0034913540 1.3716000000 0.1589374165
-1.0160000000 1.3716000000 0.0000000000
1.0160000000 1.5240000000 0.0000000000
1.0034913540 1.5240000000 0.1589374165
0.9662734206 1.5240000000 0.3139612663
0.9052626286 1.5240000000 0.4612543477
0.8219612663 1.5240000000 0.5971898163
0.7184204897 1.5240000000 0.7184204897
0.5971898163 1.5240000000 0.8219612663
0.4612543477 1.5240000000 0.9052626286
0.3139612663 1.5240000000 0.9662734206
0.1589374165 1.5240000000 1.0034913540
0.0000000000 1.5240000000 1.0160000000
-0.1589374165 1.5240000000 1.0034913540
-0.3139612663 1.5240000000 0.9662734206
-0.4612543477 1.5240000000 0.9052626286
-0.5971898163 1.5240000000 0.8219612663
-0.7184204897 1.5240000000 0.7184204897
-0.8219612663 1.5240000000 0.5971898163
-0.9052626286 1.5240000000 0.4612543477
-0.9662734206 1.5240000000 0.3139612663
-1.0034913540 1.5240000000 0.1589374165
-1.0160000000 1.5240000000 0.0000000000
1.0160000000 1.6764000000 0.0000000000
1.0034913540 1.6764000000 0.1589374165
0.9662734206 1.6764000000 0.3139612663
0.9052626286 1.6764000000 0.4612543477
0.8219612663 1.6764000000 0.5971898163
0.7184204897 1.6764000000 0.7184204897
0.5971898163 1.6764000000 0.8219612663
0.4612543477 1.6764000000 0.9052626286
0.3139612663 1.6764000000 0.9662734206
0.1589374165 1.6764000000 1.0034913540
0.0000000000 1.6764000000 1.0160000000
-0.1589374165 1.6764000000 1.0034913540
-0.3139612663 1.6764000000 0.9662734206
-0.4612543477 1.6764000000 0.9052626286
-0.5971898163 1.6764000000 0.8219612663
-0.7184204897 1.6764000000 0.7184204897
-0.8219612663 1.6764000000 0.5971898163
-0.9052626286 1.6764000000 0.4612543477
-0.9662734206 1.6764000000 0.3139612663
-1.0034913540 1.6764000000 0.1589374165
[...]
POINT_DATA 441
VECTORS normalVecs double
1.0000000000 0.0000000000 0.0000000000
0.9876883406 0.0000000000 0.1564344650
0.9510565163 0.0000000000 0.3090169944
0.8910065242 0.0000000000 0.4539904997
0.8090169944 0.0000000000 0.5877852523
0.7071067812 0.0000000000 0.7071067812
0.5877852523 0.0000000000 0.8090169944
0.4539904997 0.0000000000 0.8910065242
0.3090169944 0.0000000000 0.9510565163
0.1564344650 0.0000000000 0.9876883406
0.0000000000 0.0000000000 1.0000000000
-0.1564344650 0.0000000000 0.9876883406
-0.3090169944 0.0000000000 0.9510565163
-0.4539904997 0.0000000000 0.8910065242
-0.5877852523 0.0000000000 0.8090169944
-0.7071067812 0.0000000000 0.7071067812
-0.8090169944 0.0000000000 0.5877852523
-0.8910065242 0.0000000000 0.4539904997
-0.9510565163 0.0000000000 0.3090169944
-0.9876883406 0.0000000000 0.1564344650
-1.0000000000 0.0000000000 0.0000000000
1.0000000000 0.0000000000 0.0000000000
0.9876883406 0.0000000000 0.1564344650
0.9510565163 0.0000000000 0.3090169944
0.8910065242 0.0000000000 0.4539904997
0.8090169944 0.0000000000 0.5877852523
0.7071067812 0.0000000000 0.7071067812
0.5877852523 0.0000000000 0.8090169944
0.4539904997 0.0000000000 0.8910065242
0.3090169944 0.0000000000 0.9510565163
0.1564344650 0.0000000000 0.9876883406
0.0000000000 0.0000000000 1.0000000000
-0.1564344650 0.0000000000 0.9876883406
-0.3090169944 0.0000000000 0.9510565163
-0.4539904997 0.0000000000 0.8910065242
-0.5877852523 0.0000000000 0.8090169944
-0.7071067812 0.0000000000 0.7071067812
-0.8090169944 0.0000000000 0.5877852523
-0.8910065242 0.0000000000 0.4539904997
-0.9510565163 0.0000000000 0.3090169944
-0.9876883406 0.0000000000 0.1564344650
-1.0000000000 0.0000000000 0.0000000000
1.0000000000 0.0000000000 0.0000000000
0.9876883406 0.0000000000 0.1564344650
0.9510565163 0.0000000000 0.3090169944
0.8910065242 0.0000000000 0.4539904997
0.8090169944 0.0000000000 0.5877852523
0.7071067812 0.0000000000 0.7071067812
0.5877852523 0.0000000000 0.8090169944
0.4539904997 0.0000000000 0.8910065242
0.3090169944 0.0000000000 0.9510565163
0.1564344650 0.0000000000 0.9876883406
0.0000000000 0.0000000000 1.0000000000
-0.1564344650 0.0000000000 0.9876883406
-0.3090169944 0.0000000000 0.9510565163
-0.4539904997 0.0000000000 0.8910065242
-0.5877852523 0.0000000000 0.8090169944
-0.7071067812 0.0000000000 0.7071067812
-0.8090169944 0.0000000000 0.5877852523
-0.8910065242 0.0000000000 0.4539904997
-0.9510565163 0.0000000000 0.3090169944
-0.9876883406 0.0000000000 0.1564344650
-1.0000000000 0.0000000000 0.0000000000
1.0000000000 0.0000000000 0.0000000000
0.9876883406 0.0000000000 0.1564344650
0.9510565163 0.0000000000 0.3090169944
0.8910065242 0.0000000000 0.4539904997
0.8090169944 0.0000000000 0.5877852523
0.7071067812 0.0000000000 0.7071067812
0.5877852523 0.0000000000 0.8090169944
0.4539904997 0.0000000000 0.8910065242
0.3090169944 0.0000000000 0.9510565163
0.1564344650 0.0000000000 0.9876883406
0.0000000000 0.0000000000 1.0000000000
-0.1564344650 0.0000000000 0.9876883406
-0.3090169944 0.0000000000 0.9510565163
-0.4539904997 0.0000000000 0.8910065242
-0.5877852523 0.0000000000 0.8090169944
-0.7071067812 0.0000000000 0.7071067812
-0.8090169944 0.0000000000 0.5877852523
-0.8910065242 0.0000000000 0.4539904997
-0.9510565163 0.0000000000 0.3090169944
-0.9876883406 0.0000000000 0.1564344650
-1.0000000000 0.0000000000 0.0000000000
1.0000000000 0.0000000000 0.0000000000
0.9876883406 0.0000000000 0.1564344650
0.9510565163 0.0000000000 0.3090169944
0.8910065242 0.0000000000 0.4539904997
0.8090169944 0.0000000000 0.5877852523
0.7071067812 0.0000000000 0.7071067812
0.5877852523 0.0000000000 0.8090169944
0.4539904997 0.0000000000 0.8910065242
0.3090169944 0.0000000000 0.9510565163
0.1564344650 0.0000000000 0.9876883406
0.0000000000 0.0000000000 1.0000000000
-0.1564344650 0.0000000000 0.9876883406
-0.3090169944 0.0000000000 0.9510565163
-0.4539904997 0.0000000000 0.8910065242
-0.5877852523 0.0000000000 0.8090169944
-0.7071067812 0.0000000000 0.7071067812
-0.8090169944 0.0000000000 0.5877852523
-0.8910065242 0.0000000000 0.4539904997
-0.9510565163 0.0000000000 0.3090169944
-0.9876883406 0.0000000000 0.1564344650
-1.0000000000 0.0000000000 0.0000000000
1.0000000000 0.0000000000 0.0000000000
0.9876883406 0.0000000000 0.1564344650
0.9510565163 0.0000000000 0.3090169944
0.8910065242 0.0000000000 0.4539904997
0.8090169944 0.0000000000 0.5877852523
0.7071067812 0.0000000000 0.7071067812
0.5877852523 0.0000000000 0.8090169944
0.4539904997 0.0000000000 0.8910065242
0.3090169944 0.0000000000 0.9510565163
0.1564344650 0.0000000000 0.9876883406
0.0000000000 0.0000000000 1.0000000000
-0.1564344650 0.0000000000 0.9876883406
-0.3090169944 0.0000000000 0.9510565163
-0.4539904997 0.0000000000 0.8910065242
-0.5877852523 0.0000000000 0.8090169944
-0.7071067812 0.0000000000 0.7071067812
-0.8090169944 0.0000000000 0.5877852523
-0.8910065242 0.0000000000 0.4539904997
-0.9510565163 0.0000000000 0.3090169944
-0.9876883406 0.0000000000 0.1564344650
-1.0000000000 0.0000000000 0.0000000000
1.0000000000 0.0000000000 0.0000000000
0.9876883406 0.0000000000 0.1564344650
0.9510565163 0.0000000000 0.3090169944
0.8910065242 0.0000000000 0.4539904997
0.8090169944 0.0000000000 0.5877852523
0.7071067812 0.0000000000 0.7071067812
0.5877852523 0.0000000000 0.8090169944
0.4539904997 0.0000000000 0.8910065242
0.3090169944 0.0000000000 0.9510565163
0.1564344650 0.0000000000 0.9876883406
0.0000000000 0.0000000000 1.0000000000
-0.1564344650 0.0000000000 0.9876883406
-0.3090169944 0.0000000000 0.9510565163
-0.4539904997 0.0000000000 0.8910065242
-0.5877852523 0.0000000000 0.8090169944
-0.7071067812 0.0000000000 0.7071067812
-0.8090169944 0.0000000000 0.5877852523
-0.8910065242 0.0000000000 0.4539904997
-0.9510565163 0.0000000000 0.3090169944
-0.9876883406 0.0000000000 0.1564344650
-1.0000000000 0.0000000000 0.0000000000
1.0000000000 0.0000000000 0.0000000000
0.9876883406 0.0000000000 0.1564344650
0.9510565163 0.0000000000 0.3090169944
0.8910065242 0.0000000000 0.4539904997
0.8090169944 0.0000000000 0.5877852523
0.7071067812 0.0000000000 0.7071067812
0.5877852523 0.0000000000 0.8090169944
0.4539904997 0.0000000000 0.8910065242
0.3090169944 0.0000000000 0.9510565163
0.1564344650 0.0000000000 0.9876883406
0.0000000000 0.0000000000 1.0000000000
-0.1564344650 0.0000000000 0.9876883406
-0.3090169944 0.0000000000 0.9510565163
-0.4539904997 0.0000000000 0.8910065242
-0.5877852523 0.0000000000 0.8090169944
-0.7071067812 0.0000000000 0.7071067812
-0.8090169944 0.0000000000 0.5877852523
-0.8910065242 0.0000000000 0.4539904997
-0.9510565163 0.0000000000 0.3090169944
-0.9876883406 0.0000000000 0.1564344650
-1.0000000000 0.0000000000 0.0000000000
1.0000000000 0.0000000000 0.0000000000
0.9876883406 0.0000000000 0.1564344650
0.9510565163 0.0000000000 0.3090169944
0.8910065242 0.0000000000 0.4539904997
0.8090169944 0.0000000000 0.5877852523
0.7071067812 0.0000000000 0.7071067812
0.5877852523 0.0000000000 0.8090169944
0.4539904997 0.0000000000 0.8910065242
0.3090169944 0.0000000000 0.9510565163
0.1564344650 0.0000000000 0.9876883406
0.0000000000 0.0000000000 1.0000000000
-0.1564344650 0.0000000000 0.9876883406
-0.3090169944 0.0000000000 0.9510565163
-0.4539904997 0.0000000000 0.8910065242
-0.5877852523 0.0000000000 0.8090169944
-0.7071067812 0.0000000000 0.7071067812
-0.8090169944 0.0000000000 0.5877852523
-0.8910065242 0.0000000000 0.4539904997
-0.9510565163 0.0000000000 0.3090169944
-0.9876883406 0.0000000000 0.1564344650
-1.0000000000 0.0000000000 0.0000000000
1.0000000000 0.0000000000 0.0000000000
0.9876883406 0.0000000000 0.1564344650
0.9510565163 0.0000000000 0.3090169944
0.8910065242 0.0000000000 0.4539904997
0.8090169944 0.0000000000 0.5877852523
0.7071067812 0.0000000000 0.7071067812
0.5877852523 0.0000000000 0.8090169944
0.4539904997 0.0000000000 0.8910065242
0.3090169944 0.0000000000 0.9510565163
0.1564344650 0.0000000000 0.9876883406
0.0000000000 0.0000000000 1.0000000000
-0.1564344650 0.0000000000 0.9876883406
-0.3090169944 0.0000000000 0.9510565163
-0.4539904997 0.0000000000 0.8910065242
-0.5877852523 0.0000000000 0.8090169944
-0.7071067812 0.0000000000 0.7071067812
-0.8090169944 0.0000000000 0.5877852523
-0.8910065242 0.0000000000 0.4539904997
-0.9510565163 0.0000000000 0.3090169944
-0.9876883406 0.0000000000 0.1564344650
-1.0000000000 0.0000000000 0.0000000000
1.0000000000 0.0000000000 0.0000000000
0.9876883406 0.0000000000 0.1564344650
0.9510565163 0.0000000000 0.3090169944
0.8910065242 0.0000000000 0.4539904997
0.8090169944 0.0000000000 0.5877852523
0.7071067812 0.0000000000 0.7071067812
0.5877852523 0.0000000000 0.8090169944
0.4539904997 0.0000000000 0.8910065242
0.3090169944 0.0000000000 0.9510565163
0.1564344650 0.0000000000 0.9876883406
0.0000000000 0.0000000000 1.0000000000
-0.1564344650 0.0000000000 0.9876883406
-0.3090169944 0.0000000000 0.9510565163
-0.4539904997 0.0000000000 0.8910065242
-0.5877852523 0.0000000000 0.8090169944
-0.7071067812 0.0000000000 0.7071067812
-0.8090169944 0.0000000000 0.5877852523
-0.8910065242 0.0000000000 0.4539904997
-0.9510565163 0.0000000000 0.3090169944
-0.9876883406 0.0000000000 0.1564344650
-1.0000000000 0.0000000000 0.0000000000
1.0000000000 0.0000000000 0.0000000000
0.9876883406 0.0000000000 0.1564344650
0.9510565163 0.0000000000 0.3090169944
0.8910065242 0.0000000000 0.4539904997
0.8090169944 0.0000000000 0.5877852523
0.7071067812 0.0000000000 0.7071067812
0.5877852523 0.0000000000 0.8090169944
0.4539904997 0.0000000000 0.8910065242
0.3090169944 0.0000000000 0.9510565163
0.1564344650 0.0000000000 0.9876883406
0.0000000000 0.0000000000 1.0000000000
-0.1564344650 0.0000000000 0.9876883406
-0.3090169944 0.0000000000 0.9510565163
-0.4539904997 0.0000000000 0.8910065242
-0.5877852523 0.0000000000 0.8090169944
-0.7071067812 0.0000000000 0.7071067812
-0.8090169944 0.0000000000 0.5877852523
-0.8910065242 0.0000000000 0.4539904997
-0.9510565163 0.0000000000 0.3090169944
-0.9876883406 0.0000000000 0.1564344650
-1.0000000000 0.0000000000 0.0000000000
1.0000000000 0.0000000000 0.0000000000
0.9876883406 0.0000000000 0.1564344650
0.9510565163 0.0000000000 0.3090169944
0.8910065242 0.0000000000 0.4539904997
0.8090169944 0.0000000000 0.5877852523
0.7071067812 0.0000000000 0.7071067812
0.5877852523 0.0000000000 0.8090169944
0.4539904997 0.0000000000 0.8910065242
0.3090169944 0.0000000000 0.9510565163
0.1564344650 0.0000000000 0.9876883406
0.0000000000 0.0000000000 1.0000000000
-0.1564344650 0.0000000000 0.9876883406
-0.3090169944 0.0000000000 0.9510565163
-0.4539904997 0.0000000000 0.8910065242
-0.5877852523 0.0000000000 0.8090169944
-0.7071067812 0.0000000000 0.7071067812
-0.8090169944 0.0000000000 0.5877852523
-0.8910065242 0.0000000000 0.4539904997
-0.9510565163 0.0000000000 0.3090169944
-0.9876883406 0.0000000000 0.1564344650
-1.0000000000 0.0000000000 0.0000000000
1.0000000000 0.0000000000 0.0000000000
0.9876883406 0.0000000000 0.1564344650
0.9510565163 0.0000000000 0.3090169944
0.8910065242 0.0000000000 0.4539904997
0.8090169944 0.0000000000 0.5877852523
0.7071067812 0.0000000000 0.7071067812
0.5877852523 0.0000000000 0.8090169944
0.4539904997 0.0000000000 0.8910065242
0.3090169944 0.0000000000 0.9510565163
0.1564344650 0.0000000000 0.9876883406
0.0000000000 0.0000000000 1.0000000000
-0.1564344650 0.0000000000 0.9876883406
-0.3090169944 0.0000000000 0.9510565163
-0.4539904997 0.0000000000 0.8910065242
-0.5877852523 0.0000000000 0.8090169944
-0.7071067812 0.0000000000 0.7071067812
-0.8090169944 0.0000000000 0.5877852523
-0.8910065242 0.0000000000 0.4539904997
-0.9510565163 0.0000000000 0.3090169944
-0.9876883406 0.0000000000 0.1564344650
-1.0000000000 0.0000000000 0.0000000000
1.0000000000 0.0000000000 0.0000000000
0.9876883406 0.0000000000 0.1564344650
0.9510565163 0.0000000000 0.3090169944
0.8910065242 0.0000000000 0.4539904997
0.8090169944 0.0000000000 0.5877852523
0.7071067812 0.0000000000 0.7071067812
0.5877852523 0.0000000000 0.8090169944
0.4539904997 0.0000000000 0.8910065242
0.3090169944 0.0000000000 0.9510565163
0.1564344650 0.0000000000 0.9876883406
0.0000000000 0.0000000000 1.0000000000
-0.1564344650 0.0000000000 0.9876883406
-0.3090169944 0.0000000000 0.9510565163
-0.4539904997 0.0000000000 0.8910065242
-0.5877852523 0.0000000000 0.8090169944
-0.7071067812 0.0000000000 0.7071067812
-0.8090169944 0.0000000000 0.5877852523
-0.8910065242 0.0000000000 0.4539904997
-0.9510565163 0.0000000000 0.3090169944
-0.9876883406 0.0000000000 0.1564344650
-1.0000000000 0.0000000000 0.0000000000
1.0000000000 0.0000000000 0.0000000000
0.9876883406 0.0000000000 0.1564344650
0.9510565163 0.0000000000 0.3090169944
0.8910065242 0.0000000000 0.4539904997
0.8090169944 0.0000000000 0.5877852523
0.7071067812 0.0000000000 0.7071067812
0.5877852523 0.0000000000 0.8090169944
0.4539904997 0.0000000000 0.8910065242
0.3090169944 0.0000000000 0.9510565163
0.1564344650 0.0000000000 0.9876883406
0.0000000000 0.0000000000 1.0000000000
-0.1564344650 0.0000000000 0.9876883406
-0.3090169944 0.0000000000 0.9510565163
-0.4539904997 0.0000000000 0.8910065242
-0.5877852523 0.0000000000 0.8090169944
-0.7071067812 0.0000000000 0.7071067812
-0.8090169944 0.0000000000 0.5877852523
-0.8910065242 0.0000000000 0.4539904997
-0.9510565163 0.0000000000 0.3090169944
-0.9876883406 0.0000000000 0.1564344650
-1.0000000000 0.0000000000 0.0000000000
1.0000000000 0.0000000000 0.0000000000
0.9876883406 0.0000000000 0.1564344650
0.9510565163 0.0000000000 0.3090169944
0.8910065242 0.0000000000 0.4539904997
0.8090169944 0.0000000000 0.5877852523
0.7071067812 0.0000000000 0.7071067812
0.5877852523 0.0000000000 0.8090169944
0.4539904997 0.0000000000 0.8910065242
0.3090169944 0.0000000000 0.9510565163
0.1564344650 0.0000000000 0.9876883406
0.0000000000 0.0000000000 1.0000000000
-0.1564344650 0.0000000000 0.9876883406
-0.3090169944 0.0000000000 0.9510565163
-0.4539904997 0.0000000000 0.8910065242
-0.5877852523 0.0000000000 0.8090169944
-0.7071067812 0.0000000000 0.7071067812
-0.8090169944 0.0000000000 0.5877852523
-0.8910065242 0.0000000000 0.4539904997
-0.9510565163 0.0000000000 0.3090169944
-0.9876883406 0.0000000000 0.1564344650
-1.0000000000 0.0000000000 0.0000000000
1.0000000000 0.0000000000 0.0000000000
0.9876883406 0.0000000000 0.1564344650
0.9510565163 0.0000000000 0.3090169944
0.8910065242 0.0000000000 0.4539904997
0.8090169944 0.0000000000 0.5877852523
0.7071067812 0.0000000000 0.7071067812
0.5877852523 0.0000000000 0.8090169944
0.4539904997 0.0000000000 0.8910065242
0.3090169944 0.0000000000 0.9510565163
0.1564344650 0.0000000000 0.9876883406
0.0000000000 0.0000000000 1.0000000000
-0.1564344650 0.0000000000 0.9876883406
-0.3090169944 0.0000000000 0.9510565163
-0.4539904997 0.0000000000 0.8910065242
-0.5877852523 0.0000000000 0.8090169944
-0.7071067812 0.0000000000 0.7071067812
-0.8090169944 0.0000000000 0.5877852523
-0.8910065242 0.0000000000 0.4539904997
-0.9510565163 0.0000000000 0.3090169944
-0.9876883406 0.0000000000 0.1564344650
-1.0000000000 0.0000000000 0.0000000000
1.0000000000 0.0000000000 0.0000000000
0.9876883406 0.0000000000 0.1564344650
0.9510565163 0.0000000000 0.3090169944
0.8910065242 0.0000000000 0.4539904997
0.8090169944 0.0000000000 0.5877852523
0.7071067812 0.0000000000 0.7071067812
0.5877852523 0.0000000000 0.8090169944
0.4539904997 0.0000000000 0.8910065242
0.3090169944 0.0000000000 0.9510565163
0.1564344650 0.0000000000 0.9876883406
0.0000000000 0.0000000000 1.0000000000
-0.1564344650 0.0000000000 0.9876883406
-0.3090169944 0.0000000000 0.9510565163
-0.4539904997 0.0000000000 0.8910065242
-0.5877852523 0.0000000000 0.8090169944
-0.7071067812 0.0000000000 0.7071067812
-0.8090169944 0.0000000000 0.5877852523
-0.8910065242 0.0000000000 0.4539904997
-0.9510565163 0.0000000000 0.3090169944
-0.9876883406 0.0000000000 0.1564344650
-1.0000000000 0.0000000000 0.0000000000
1.0000000000 0.0000000000 0.0000000000
0.9876883406 0.0000000000 0.1564344650
0.9510565163 0.0000000000 0.3090169944
0.8910065242 0.0000000000 0.4539904997
0.8090169944 0.0000000000 0.5877852523
0.7071067812 0.0000000000 0.7071067812
0.5877852523 0.0000000000 0.8090169944
0.4539904997 0.0000000000 0.8910065242
0.3090169944 0.0000000000 0.9510565163
0.1564344650 0.0000000000 0.9876883406
0.0000000000 0.0000000000 1.0000000000
-0.1564344650 0.0000000000 0.9876883406
-0.3090169944 0.0000000000 0.9510565163
-0.4539904997 0.0000000000 0.8910065242
-0.5877852523 0.0000000000 0.8090169944
-0.7071067812 0.0000000000 0.7071067812
-0.8090169944 0.0000000000 0.5877852523
-0.8910065242 0.0000000000 0.4539904997
-0.9510565163 0.0000000000 0.3090169944
-0.9876883406 0.0000000000 0.1564344650
-1.0000000000 0.0000000000 0.0000000000
1.0000000000 0.0000000000 0.0000000000
0.9876883406 0.0000000000 0.1564344650
0.9510565163 0.0000000000 0.3090169944
0.8910065242 0.0000000000 0.4539904997
0.8090169944 0.0000000000 0.5877852523
0.7071067812 0.0000000000 0.7071067812
0.5877852523 0.0000000000 0.8090169944
0.4539904997 0.0000000000 0.8910065242
0.3090169944 0.0000000000 0.9510565163
0.1564344650 0.0000000000 0.9876883406
0.0000000000 0.0000000000 1.0000000000
-0.1564344650 0.0000000000 0.9876883406
-0.3090169944 0.0000000000 0.9510565163
-0.4539904997 0.0000000000 0.8910065242
-0.5877852523 0.0000000000 0.8090169944
-0.7071067812 0.0000000000 0.7071067812
-0.8090169944 0.0000000000 0.5877852523
-0.8910065242 0.0000000000 0.4539904997
-0.9510565163 0.0000000000 0.3090169944
-0.9876883406 0.0000000000 0.1564344650
-1.0000000000 0.0000000000 0.0000000000
